# 100-Makefile

# variables
CC = gcc
SRC = main.c school.c
NAME = school
OBJ = $(SRC:.c=.o) # Substitution References
CFLAGS = -Wall -Werror -Wextra -pedantic

.PHONY: all clean oclean fclean

all: m.h $(OBJ)
	$(CC) $(OBJ) -o $(NAME)

# Deletes all Emacs and Vim temporary files along with the executable
clean:
	$(RM) *~ $(NAME)

# Deletes the object files
oclean:
	$(RM) $(OBJ)

# Deletes all Emacs and Vim temporary files, the executable,
# and the object files
fclean: clean oclean

# Forces recompilation of all source files
re: oclean all
