# 2-Makefile

# variables
CC = gcc
SRC = main.c school.c
NAME = school
OBJ = $(SRC:.c=.o) # Substitution References
RM = rm -f
CFLAGS = -Wall -Werror -Wextra -pedantic

all: $(OBJ)
	$(CC) $(CFLAGS) $(OBJ) -o $(NAME)

.PHONY: clean oclean fclean re

# Deletes all Emacs and Vim temporary files along with the executable
clean:
	$(RM) *~ $(NAME)

# Deletes the object files
oclean:
	$(RM) $(OBJ)

fclean: clean oclean

# Forces recompilation of all source files
re: oclean all
